M 10.00000 0 (5.00, 2.00, 0.00), (20.00, 18.00), 1.00
s 10.000000000 _0_ AGT  --- 0 tcp 40 [0 0 0 0] ------- [0:0 1:0 32 0] [0 0] 0 0
r 10.000000000 _0_ RTR  --- 0 tcp 40 [0 0 0 0] ------- [0:0 1:0 32 0] [0 0] 0 0
s 10.000000000 _0_ RTR  --- 0 AODV 48 [0 0 0 0] ------- [0:255 -1:255 30 0] [0x2 1 1 [1 0] [0 4]] (REQUEST)
s 12.000000000 _0_ RTR  --- 0 AODV 48 [0 0 0 0] ------- [0:255 -1:255 30 0] [0x2 1 2 [1 0] [0 6]] (REQUEST)
s 13.000000000 _0_ AGT  --- 1 tcp 40 [0 0 0 0] ------- [0:0 1:0 32 0] [0 0] 0 0
r 13.000000000 _0_ RTR  --- 1 tcp 40 [0 0 0 0] ------- [0:0 1:0 32 0] [0 0] 0 0
s 16.000000000 _0_ RTR  --- 0 AODV 48 [0 0 0 0] ------- [0:255 -1:255 30 0] [0x2 1 3 [1 0] [0 8]] (REQUEST)
s 19.000000000 _0_ AGT  --- 2 tcp 40 [0 0 0 0] ------- [0:0 1:0 32 0] [0 0] 0 0
r 19.000000000 _0_ RTR  --- 2 tcp 40 [0 0 0 0] ------- [0:0 1:0 32 0] [0 0] 0 0
s 21.500000000 _0_ RTR  --- 0 AODV 48 [0 0 0 0] ------- [0:255 -1:255 30 0] [0x2 1 4 [1 0] [0 10]] (REQUEST)
D 29.000000000 _0_ RTR NRTE 0 tcp 40 [0 0 0 0] ------- [0:0 1:0 30 0] [0 0] 0 0
D 29.000000000 _0_ RTR NRTE 1 tcp 40 [0 0 0 0] ------- [0:0 1:0 30 0] [0 0] 0 0
D 29.000000000 _0_ RTR NRTE 2 tcp 40 [0 0 0 0] ------- [0:0 1:0 30 0] [0 0] 0 0
s 31.000000000 _0_ AGT  --- 3 tcp 40 [0 0 0 0] ------- [0:0 1:0 32 0] [0 0] 0 0
r 31.000000000 _0_ RTR  --- 3 tcp 40 [0 0 0 0] ------- [0:0 1:0 32 0] [0 0] 0 0
s 39.000000000 _0_ RTR  --- 0 AODV 48 [0 0 0 0] ------- [0:255 -1:255 30 0] [0x2 1 5 [1 0] [0 12]] (REQUEST)
s 41.000000000 _0_ RTR  --- 0 AODV 48 [0 0 0 0] ------- [0:255 -1:255 30 0] [0x2 1 6 [1 0] [0 14]] (REQUEST)
s 45.000000000 _0_ RTR  --- 0 AODV 48 [0 0 0 0] ------- [0:255 -1:255 30 0] [0x2 1 7 [1 0] [0 16]] (REQUEST)
M 50.00000 1 (390.00, 385.00, 0.00), (25.00, 20.00), 15.00
s 50.500000000 _0_ RTR  --- 0 AODV 48 [0 0 0 0] ------- [0:255 -1:255 30 0] [0x2 1 8 [1 0] [0 18]] (REQUEST)
s 55.000000000 _0_ AGT  --- 4 tcp 40 [0 0 0 0] ------- [0:0 1:0 32 0] [0 0] 0 0
r 55.000000000 _0_ RTR  --- 4 tcp 40 [0 0 0 0] ------- [0:0 1:0 32 0] [0 0] 0 0
D 58.000000000 _0_ RTR NRTE 3 tcp 40 [0 0 0 0] ------- [0:0 1:0 30 0] [0 0] 0 0
D 58.000000000 _0_ RTR NRTE 4 tcp 40 [0 0 0 0] ------- [0:0 1:0 30 0] [0 0] 0 0
M 100.00000 1 (25.00, 20.00, 0.00), (490.00, 480.00), 15.00
s 103.000000000 _0_ AGT  --- 5 tcp 40 [0 0 0 0] ------- [0:0 1:0 32 0] [0 0] 0 0
r 103.000000000 _0_ RTR  --- 5 tcp 40 [0 0 0 0] ------- [0:0 1:0 32 0] [0 0] 0 0
s 103.000000000 _0_ RTR  --- 0 AODV 48 [0 0 0 0] ------- [0:255 -1:255 30 0] [0x2 1 9 [1 0] [0 20]] (REQUEST)
r 103.001108167 _1_ RTR  --- 0 AODV 48 [0 ffffffff 0 800] ------- [0:255 -1:255 30 0] [0x2 1 9 [1 0] [0 20]] (REQUEST)
s 103.001108167 _1_ RTR  --- 0 AODV 44 [0 0 0 0] ------- [1:255 0:255 30 0] [0x4 1 [1 4] 10.000000] (REPLY)
r 103.005807335 _0_ RTR  --- 0 AODV 44 [13a 0 1 800] ------- [1:255 0:255 30 0] [0x4 1 [1 4] 10.000000] (REPLY)
s 103.005807335 _0_ RTR  --- 5 tcp 40 [0 0 0 0] ------- [0:0 1:0 30 1] [0 0] 0 0
r 103.007851836 _1_ AGT  --- 5 tcp 40 [13a 1 0 800] ------- [0:0 1:0 30 1] [0 0] 1 0
s 103.007851836 _1_ AGT  --- 6 ack 40 [0 0 0 0] ------- [1:0 0:0 32 0] [0 0] 0 0
r 103.007851836 _1_ RTR  --- 6 ack 40 [0 0 0 0] ------- [1:0 0:0 32 0] [0 0] 0 0
s 103.007851836 _1_ RTR  --- 6 ack 40 [0 0 0 0] ------- [1:0 0:0 30 0] [0 0] 0 0
r 103.009916337 _0_ AGT  --- 6 ack 40 [13a 0 1 800] ------- [1:0 0:0 30 0] [0 0] 1 0
s 103.009916337 _0_ AGT  --- 7 tcp 1040 [0 0 0 0] ------- [0:0 1:0 32 0] [1 0] 0 0
r 103.009916337 _0_ RTR  --- 7 tcp 1040 [0 0 0 0] ------- [0:0 1:0 32 0] [1 0] 0 0
s 103.009916337 _0_ RTR  --- 7 tcp 1040 [0 0 0 0] ------- [0:0 1:0 30 1] [1 0] 0 0
r 103.019940839 _1_ AGT  --- 7 tcp 1040 [13a 1 0 800] ------- [0:0 1:0 30 1] [1 0] 1 0
s 103.019940839 _1_ AGT  --- 8 ack 40 [0 0 0 0] ------- [1:0 0:0 32 0] [1 0] 0 0
r 103.019940839 _1_ RTR  --- 8 ack 40 [0 0 0 0] ------- [1:0 0:0 32 0] [1 0] 0 0
s 103.019940839 _1_ RTR  --- 8 ack 40 [0 0 0 0] ------- [1:0 0:0 30 0] [1 0] 0 0
r 103.022345342 _0_ AGT  --- 8 ack 40 [13a 0 1 800] ------- [1:0 0:0 30 0] [1 0] 1 0
s 103.022345342 _0_ AGT  --- 9 tcp 1040 [0 0 0 0] ------- [0:0 1:0 32 0] [2 0] 0 0
r 103.022345342 _0_ RTR  --- 9 tcp 1040 [0 0 0 0] ------- [0:0 1:0 32 0] [2 0] 0 0
s 103.022345342 _0_ AGT  --- 10 tcp 1040 [0 0 0 0] ------- [0:0 1:0 32 0] [3 0] 0 0
r 103.022345342 _0_ RTR  --- 10 tcp 1040 [0 0 0 0] ------- [0:0 1:0 32 0] [3 0] 0 0
s 103.022345342 _0_ RTR  --- 9 tcp 1040 [0 0 0 0] ------- [0:0 1:0 30 1] [2 0] 0 0
s 103.022345342 _0_ RTR  --- 10 tcp 1040 [0 0 0 0] ------- [0:0 1:0 30 1] [3 0] 0 0
r 103.032709846 _1_ AGT  --- 9 tcp 1040 [13a 1 0 800] ------- [0:0 1:0 30 1] [2 0] 1 0
s 103.032709846 _1_ AGT  --- 11 ack 40 [0 0 0 0] ------- [1:0 0:0 32 0] [2 0] 0 0
r 103.032709846 _1_ RTR  --- 11 ack 40 [0 0 0 0] ------- [1:0 0:0 32 0] [2 0] 0 0
s 103.032709846 _1_ RTR  --- 11 ack 40 [0 0 0 0] ------- [1:0 0:0 30 0] [2 0] 0 0
r 103.034574351 _0_ AGT  --- 11 ack 40 [13a 0 1 800] ------- [1:0 0:0 30 0] [2 0] 1 0
s 103.034574351 _0_ AGT  --- 12 tcp 1040 [0 0 0 0] ------- [0:0 1:0 32 0] [4 0] 0 0
r 103.034574351 _0_ RTR  --- 12 tcp 1040 [0 0 0 0] ------- [0:0 1:0 32 0] [4 0] 0 0
s 103.034574351 _0_ RTR  --- 12 tcp 1040 [0 0 0 0] ------- [0:0 1:0 30 1] [4 0] 0 0
r 103.044658856 _1_ AGT  --- 10 tcp 1040 [13a 1 0 800] ------- [0:0 1:0 30 1] [3 0] 1 0
s 103.044658856 _1_ AGT  --- 13 ack 40 [0 0 0 0] ------- [1:0 0:0 32 0] [3 0] 0 0
r 103.044658856 _1_ RTR  --- 13 ack 40 [0 0 0 0] ------- [1:0 0:0 32 0] [3 0] 0 0
s 103.044658856 _1_ RTR  --- 13 ack 40 [0 0 0 0] ------- [1:0 0:0 30 0] [3 0] 0 0
r 103.046583363 _0_ AGT  --- 13 ack 40 [13a 0 1 800] ------- [1:0 0:0 30 0] [3 0] 1 0
s 103.046583363 _0_ AGT  --- 14 tcp 1040 [0 0 0 0] ------- [0:0 1:0 32 0] [5 0] 0 0
r 103.046583363 _0_ RTR  --- 14 tcp 1040 [0 0 0 0] ------- [0:0 1:0 32 0] [5 0] 0 0
s 103.046583363 _0_ RTR  --- 14 tcp 1040 [0 0 0 0] ------- [0:0 1:0 30 1] [5 0] 0 0
r 103.056447870 _1_ AGT  --- 12 tcp 1040 [13a 1 0 800] ------- [0:0 1:0 30 1] [4 0] 1 0
s 103.056447870 _1_ AGT  --- 15 ack 40 [0 0 0 0] ------- [1:0 0:0 32 0] [4 0] 0 0
r 103.056447870 _1_ RTR  --- 15 ack 40 [0 0 0 0] ------- [1:0 0:0 32 0] [4 0] 0 0
s 103.056447870 _1_ RTR  --- 15 ack 40 [0 0 0 0] ------- [1:0 0:0 30 0] [4 0] 0 0
r 103.058312379 _0_ AGT  --- 15 ack 40 [13a 0 1 800] ------- [1:0 0:0 30 0] [4 0] 1 0
s 103.058312379 _0_ AGT  --- 16 tcp 1040 [0 0 0 0] ------- [0:0 1:0 32 0] [6 0] 0 0
r 103.058312379 _0_ RTR  --- 16 tcp 1040 [0 0 0 0] ------- [0:0 1:0 32 0] [6 0] 0 0
s 103.058312379 _0_ AGT  --- 17 tcp 1040 [0 0 0 0] ------- [0:0 1:0 32 0] [7 0] 0 0
r 103.058312379 _0_ RTR  --- 17 tcp 1040 [0 0 0 0] ------- [0:0 1:0 32 0] [7 0] 0 0
s 103.058312379 _0_ RTR  --- 16 tcp 1040 [0 0 0 0] ------- [0:0 1:0 30 1] [6 0] 0 0
s 103.058312379 _0_ RTR  --- 17 tcp 1040 [0 0 0 0] ------- [0:0 1:0 30 1] [7 0] 0 0
r 103.068376888 _1_ AGT  --- 14 tcp 1040 [13a 1 0 800] ------- [0:0 1:0 30 1] [5 0] 1 0
s 103.068376888 _1_ AGT  --- 18 ack 40 [0 0 0 0] ------- [1:0 0:0 32 0] [5 0] 0 0
r 103.068376888 _1_ RTR  --- 18 ack 40 [0 0 0 0] ------- [1:0 0:0 32 0] [5 0] 0 0
s 103.068376888 _1_ RTR  --- 18 ack 40 [0 0 0 0] ------- [1:0 0:0 30 0] [5 0] 0 0
r 103.070301398 _0_ AGT  --- 18 ack 40 [13a 0 1 800] ------- [1:0 0:0 30 0] [5 0] 1 0
s 103.070301398 _0_ AGT  --- 19 tcp 1040 [0 0 0 0] ------- [0:0 1:0 32 0] [8 0] 0 0
r 103.070301398 _0_ RTR  --- 19 tcp 1040 [0 0 0 0] ------- [0:0 1:0 32 0] [8 0] 0 0
s 103.070301398 _0_ RTR  --- 19 tcp 1040 [0 0 0 0] ------- [0:0 1:0 30 1] [8 0] 0 0
r 103.080545909 _1_ AGT  --- 16 tcp 1040 [13a 1 0 800] ------- [0:0 1:0 30 1] [6 0] 1 0
s 103.080545909 _1_ AGT  --- 20 ack 40 [0 0 0 0] ------- [1:0 0:0 32 0] [6 0] 0 0
r 103.080545909 _1_ RTR  --- 20 ack 40 [0 0 0 0] ------- [1:0 0:0 32 0] [6 0] 0 0
s 103.080545909 _1_ RTR  --- 20 ack 40 [0 0 0 0] ------- [1:0 0:0 30 0] [6 0] 0 0
r 103.082570421 _0_ AGT  --- 20 ack 40 [13a 0 1 800] ------- [1:0 0:0 30 0] [6 0] 1 0
s 103.082570421 _0_ AGT  --- 21 tcp 1040 [0 0 0 0] ------- [0:0 1:0 32 0] [9 0] 0 0
r 103.082570421 _0_ RTR  --- 21 tcp 1040 [0 0 0 0] ------- [0:0 1:0 32 0] [9 0] 0 0
s 103.082570421 _0_ RTR  --- 21 tcp 1040 [0 0 0 0] ------- [0:0 1:0 30 1] [9 0] 0 0
r 103.092774934 _1_ AGT  --- 17 tcp 1040 [13a 1 0 800] ------- [0:0 1:0 30 1] [7 0] 1 0
s 103.092774934 _1_ AGT  --- 22 ack 40 [0 0 0 0] ------- [1:0 0:0 32 0] [7 0] 0 0
r 103.092774934 _1_ RTR  --- 22 ack 40 [0 0 0 0] ------- [1:0 0:0 32 0] [7 0] 0 0
s 103.092774934 _1_ RTR  --- 22 ack 40 [0 0 0 0] ------- [1:0 0:0 30 0] [7 0] 0 0
r 103.094719448 _0_ AGT  --- 22 ack 40 [13a 0 1 800] ------- [1:0 0:0 30 0] [7 0] 1 0
s 103.094719448 _0_ AGT  --- 23 tcp 1040 [0 0 0 0] ------- [0:0 1:0 32 0] [10 0] 0 0
r 103.094719448 _0_ RTR  --- 23 tcp 1040 [0 0 0 0] ------- [0:0 1:0 32 0] [10 0] 0 0
s 103.094719448 _0_ AGT  --- 24 tcp 1040 [0 0 0 0] ------- [0:0 1:0 32 0] [11 0] 0 0
r 103.094719448 _0_ RTR  --- 24 tcp 1040 [0 0 0 0] ------- [0:0 1:0 32 0] [11 0] 0 0
s 103.094719448 _0_ RTR  --- 23 tcp 1040 [0 0 0 0] ------- [0:0 1:0 30 1] [10 0] 0 0
s 103.094719448 _0_ RTR  --- 24 tcp 1040 [0 0 0 0] ------- [0:0 1:0 30 1] [11 0] 0 0
r 103.104763962 _1_ AGT  --- 19 tcp 1040 [13a 1 0 800] ------- [0:0 1:0 30 1] [8 0] 1 0
s 103.104763962 _1_ AGT  --- 25 ack 40 [0 0 0 0] ------- [1:0 0:0 32 0] [8 0] 0 0
r 103.104763962 _1_ RTR  --- 25 ack 40 [0 0 0 0] ------- [1:0 0:0 32 0] [8 0] 0 0
s 103.104763962 _1_ RTR  --- 25 ack 40 [0 0 0 0] ------- [1:0 0:0 30 0] [8 0] 0 0
r 103.116114650 _1_ AGT  --- 21 tcp 1040 [13a 1 0 800] ------- [0:0 1:0 30 1] [9 0] 1 0
s 103.116114650 _1_ AGT  --- 26 ack 40 [0 0 0 0] ------- [1:0 0:0 32 0] [9 0] 0 0
r 103.116114650 _1_ RTR  --- 26 ack 40 [0 0 0 0] ------- [1:0 0:0 32 0] [9 0] 0 0
s 103.116114650 _1_ RTR  --- 26 ack 40 [0 0 0 0] ------- [1:0 0:0 30 0] [9 0] 0 0
r 103.118399168 _0_ AGT  --- 25 ack 40 [13a 0 1 800] ------- [1:0 0:0 30 0] [8 0] 1 0
s 103.118399168 _0_ AGT  --- 27 tcp 1040 [0 0 0 0] ------- [0:0 1:0 32 0] [12 0] 0 0
r 103.118399168 _0_ RTR  --- 27 tcp 1040 [0 0 0 0] ------- [0:0 1:0 32 0] [12 0] 0 0
s 103.118399168 _0_ RTR  --- 27 tcp 1040 [0 0 0 0] ------- [0:0 1:0 30 1] [12 0] 0 0
r 103.120223858 _0_ AGT  --- 26 ack 40 [13a 0 1 800] ------- [1:0 0:0 30 0] [9 0] 1 0
s 103.120223858 _0_ AGT  --- 28 tcp 1040 [0 0 0 0] ------- [0:0 1:0 32 0] [13 0] 0 0
r 103.120223858 _0_ RTR  --- 28 tcp 1040 [0 0 0 0] ------- [0:0 1:0 32 0] [13 0] 0 0
s 103.120223858 _0_ RTR  --- 28 tcp 1040 [0 0 0 0] ------- [0:0 1:0 30 1] [13 0] 0 0
r 103.130068376 _1_ AGT  --- 23 tcp 1040 [13a 1 0 800] ------- [0:0 1:0 30 1] [10 0] 1 0
s 103.130068376 _1_ AGT  --- 29 ack 40 [0 0 0 0] ------- [1:0 0:0 32 0] [10 0] 0 0
r 103.130068376 _1_ RTR  --- 29 ack 40 [0 0 0 0] ------- [1:0 0:0 32 0] [10 0] 0 0
s 103.130068376 _1_ RTR  --- 29 ack 40 [0 0 0 0] ------- [1:0 0:0 30 0] [10 0] 0 0
r 103.132092896 _0_ AGT  --- 29 ack 40 [13a 0 1 800] ------- [1:0 0:0 30 0] [10 0] 1 0
s 103.132092896 _0_ AGT  --- 30 tcp 1040 [0 0 0 0] ------- [0:0 1:0 32 0] [14 0] 0 0
r 103.132092896 _0_ RTR  --- 30 tcp 1040 [0 0 0 0] ------- [0:0 1:0 32 0] [14 0] 0 0
s 103.132092896 _0_ RTR  --- 30 tcp 1040 [0 0 0 0] ------- [0:0 1:0 30 1] [14 0] 0 0
r 103.142037416 _1_ AGT  --- 24 tcp 1040 [13a 1 0 800] ------- [0:0 1:0 30 1] [11 0] 1 0
s 103.142037416 _1_ AGT  --- 31 ack 40 [0 0 0 0] ------- [1:0 0:0 32 0] [11 0] 0 0
r 103.142037416 _1_ RTR  --- 31 ack 40 [0 0 0 0] ------- [1:0 0:0 32 0] [11 0] 0 0
s 103.142037416 _1_ RTR  --- 31 ack 40 [0 0 0 0] ------- [1:0 0:0 30 0] [11 0] 0 0
r 103.143901937 _0_ AGT  --- 31 ack 40 [13a 0 1 800] ------- [1:0 0:0 30 0] [11 0] 1 0
s 103.143901937 _0_ AGT  --- 32 tcp 1040 [0 0 0 0] ------- [0:0 1:0 32 0] [15 0] 0 0
r 103.143901937 _0_ RTR  --- 32 tcp 1040 [0 0 0 0] ------- [0:0 1:0 32 0] [15 0] 0 0
s 103.143901937 _0_ RTR  --- 32 tcp 1040 [0 0 0 0] ------- [0:0 1:0 30 1] [15 0] 0 0
r 103.153906459 _1_ AGT  --- 27 tcp 1040 [13a 1 0 800] ------- [0:0 1:0 30 1] [12 0] 1 0
s 103.153906459 _1_ AGT  --- 33 ack 40 [0 0 0 0] ------- [1:0 0:0 32 0] [12 0] 0 0
r 103.153906459 _1_ RTR  --- 33 ack 40 [0 0 0 0] ------- [1:0 0:0 32 0] [12 0] 0 0
s 103.153906459 _1_ RTR  --- 33 ack 40 [0 0 0 0] ------- [1:0 0:0 30 0] [12 0] 0 0
r 103.163731157 _1_ AGT  --- 28 tcp 1040 [13a 1 0 800] ------- [0:0 1:0 30 1] [13 0] 1 0
s 103.163731157 _1_ AGT  --- 34 ack 40 [0 0 0 0] ------- [1:0 0:0 32 0] [13 0] 0 0
r 103.163731157 _1_ RTR  --- 34 ack 40 [0 0 0 0] ------- [1:0 0:0 32 0] [13 0] 0 0
s 103.163731157 _1_ RTR  --- 34 ack 40 [0 0 0 0] ------- [1:0 0:0 30 0] [13 0] 0 0
r 103.173795856 _1_ AGT  --- 30 tcp 1040 [13a 1 0 800] ------- [0:0 1:0 30 1] [14 0] 1 0
s 103.173795856 _1_ AGT  --- 35 ack 40 [0 0 0 0] ------- [1:0 0:0 32 0] [14 0] 0 0
r 103.173795856 _1_ RTR  --- 35 ack 40 [0 0 0 0] ------- [1:0 0:0 32 0] [14 0] 0 0
s 103.173795856 _1_ RTR  --- 35 ack 40 [0 0 0 0] ------- [1:0 0:0 30 0] [14 0] 0 0
r 103.175680383 _0_ AGT  --- 33 ack 40 [13a 0 1 800] ------- [1:0 0:0 30 0] [12 0] 1 0
s 103.175680383 _0_ AGT  --- 36 tcp 1040 [0 0 0 0] ------- [0:0 1:0 32 0] [16 0] 0 0
r 103.175680383 _0_ RTR  --- 36 tcp 1040 [0 0 0 0] ------- [0:0 1:0 32 0] [16 0] 0 0
s 103.175680383 _0_ AGT  --- 37 tcp 1040 [0 0 0 0] ------- [0:0 1:0 32 0] [17 0] 0 0
r 103.175680383 _0_ RTR  --- 37 tcp 1040 [0 0 0 0] ------- [0:0 1:0 32 0] [17 0] 0 0
s 103.175680383 _0_ RTR  --- 36 tcp 1040 [0 0 0 0] ------- [0:0 1:0 30 1] [16 0] 0 0
s 103.175680383 _0_ RTR  --- 37 tcp 1040 [0 0 0 0] ------- [0:0 1:0 30 1] [17 0] 0 0
r 103.185744909 _1_ AGT  --- 32 tcp 1040 [13a 1 0 800] ------- [0:0 1:0 30 1] [15 0] 1 0
s 103.185744909 _1_ AGT  --- 38 ack 40 [0 0 0 0] ------- [1:0 0:0 32 0] [15 0] 0 0
r 103.185744909 _1_ RTR  --- 38 ack 40 [0 0 0 0] ------- [1:0 0:0 32 0] [15 0] 0 0
s 103.185744909 _1_ RTR  --- 38 ack 40 [0 0 0 0] ------- [1:0 0:0 30 0] [15 0] 0 0
r 103.195589613 _1_ AGT  --- 36 tcp 1040 [13a 1 0 800] ------- [0:0 1:0 30 1] [16 0] 1 0
s 103.195589613 _1_ AGT  --- 39 ack 40 [0 0 0 0] ------- [1:0 0:0 32 0] [16 0] 0 0
r 103.195589613 _1_ RTR  --- 39 ack 40 [0 0 0 0] ------- [1:0 0:0 32 0] [16 0] 0 0
s 103.195589613 _1_ RTR  --- 39 ack 40 [0 0 0 0] ------- [1:0 0:0 30 0] [16 0] 0 0
r 103.197434143 _0_ AGT  --- 34 ack 40 [13a 0 1 800] ------- [1:0 0:0 30 0] [13 0] 1 0
s 103.197434143 _0_ AGT  --- 40 tcp 1040 [0 0 0 0] ------- [0:0 1:0 32 0] [18 0] 0 0
r 103.197434143 _0_ RTR  --- 40 tcp 1040 [0 0 0 0] ------- [0:0 1:0 32 0] [18 0] 0 0
s 103.197434143 _0_ RTR  --- 40 tcp 1040 [0 0 0 0] ------- [0:0 1:0 30 1] [18 0] 0 0
r 103.199498849 _0_ AGT  --- 35 ack 40 [13a 0 1 800] ------- [1:0 0:0 30 0] [14 0] 1 0
s 103.199498849 _0_ AGT  --- 41 tcp 1040 [0 0 0 0] ------- [0:0 1:0 32 0] [19 0] 0 0
r 103.199498849 _0_ RTR  --- 41 tcp 1040 [0 0 0 0] ------- [0:0 1:0 32 0] [19 0] 0 0
s 103.199498849 _0_ RTR  --- 41 tcp 1040 [0 0 0 0] ------- [0:0 1:0 30 1] [19 0] 0 0
r 103.201443556 _0_ AGT  --- 38 ack 40 [13a 0 1 800] ------- [1:0 0:0 30 0] [15 0] 1 0
s 103.201443556 _0_ AGT  --- 42 tcp 1040 [0 0 0 0] ------- [0:0 1:0 32 0] [20 0] 0 0
r 103.201443556 _0_ RTR  --- 42 tcp 1040 [0 0 0 0] ------- [0:0 1:0 32 0] [20 0] 0 0
s 103.201443556 _0_ RTR  --- 42 tcp 1040 [0 0 0 0] ------- [0:0 1:0 30 1] [20 0] 0 0
r 103.211368086 _1_ AGT  --- 37 tcp 1040 [13a 1 0 800] ------- [0:0 1:0 30 1] [17 0] 1 0
s 103.211368086 _1_ AGT  --- 43 ack 40 [0 0 0 0] ------- [1:0 0:0 32 0] [17 0] 0 0
r 103.211368086 _1_ RTR  --- 43 ack 40 [0 0 0 0] ------- [1:0 0:0 32 0] [17 0] 0 0
s 103.211368086 _1_ RTR  --- 43 ack 40 [0 0 0 0] ------- [1:0 0:0 30 0] [17 0] 0 0
r 103.221232795 _1_ AGT  --- 40 tcp 1040 [13a 1 0 800] ------- [0:0 1:0 30 1] [18 0] 1 0
s 103.221232795 _1_ AGT  --- 44 ack 40 [0 0 0 0] ------- [1:0 0:0 32 0] [18 0] 0 0
r 103.221232795 _1_ RTR  --- 44 ack 40 [0 0 0 0] ------- [1:0 0:0 32 0] [18 0] 0 0
s 103.221232795 _1_ RTR  --- 44 ack 40 [0 0 0 0] ------- [1:0 0:0 30 0] [18 0] 0 0
r 103.223217328 _0_ AGT  --- 39 ack 40 [13a 0 1 800] ------- [1:0 0:0 30 0] [16 0] 1 0
s 103.223217328 _0_ AGT  --- 45 tcp 1040 [0 0 0 0] ------- [0:0 1:0 32 0] [21 0] 0 0
r 103.223217328 _0_ RTR  --- 45 tcp 1040 [0 0 0 0] ------- [0:0 1:0 32 0] [21 0] 0 0
s 103.223217328 _0_ RTR  --- 45 tcp 1040 [0 0 0 0] ------- [0:0 1:0 30 1] [21 0] 0 0
r 103.225162040 _0_ AGT  --- 43 ack 40 [13a 0 1 800] ------- [1:0 0:0 30 0] [17 0] 1 0
s 103.225162040 _0_ AGT  --- 46 tcp 1040 [0 0 0 0] ------- [0:0 1:0 32 0] [22 0] 0 0
r 103.225162040 _0_ RTR  --- 46 tcp 1040 [0 0 0 0] ------- [0:0 1:0 32 0] [22 0] 0 0
s 103.225162040 _0_ AGT  --- 47 tcp 1040 [0 0 0 0] ------- [0:0 1:0 32 0] [23 0] 0 0
r 103.225162040 _0_ RTR  --- 47 tcp 1040 [0 0 0 0] ------- [0:0 1:0 32 0] [23 0] 0 0
s 103.225162040 _0_ RTR  --- 46 tcp 1040 [0 0 0 0] ------- [0:0 1:0 30 1] [22 0] 0 0
s 103.225162040 _0_ RTR  --- 47 tcp 1040 [0 0 0 0] ------- [0:0 1:0 30 1] [23 0] 0 0
r 103.235166574 _1_ AGT  --- 41 tcp 1040 [13a 1 0 800] ------- [0:0 1:0 30 1] [19 0] 1 0
s 103.235166574 _1_ AGT  --- 48 ack 40 [0 0 0 0] ------- [1:0 0:0 32 0] [19 0] 0 0
r 103.235166574 _1_ RTR  --- 48 ack 40 [0 0 0 0] ------- [1:0 0:0 32 0] [19 0] 0 0
s 103.235166574 _1_ RTR  --- 48 ack 40 [0 0 0 0] ------- [1:0 0:0 30 0] [19 0] 0 0
r 103.237011109 _0_ AGT  --- 44 ack 40 [13a 0 1 800] ------- [1:0 0:0 30 0] [18 0] 1 0
s 103.237011109 _0_ AGT  --- 49 tcp 1040 [0 0 0 0] ------- [0:0 1:0 32 0] [24 0] 0 0
r 103.237011109 _0_ RTR  --- 49 tcp 1040 [0 0 0 0] ------- [0:0 1:0 32 0] [24 0] 0 0
s 103.237011109 _0_ RTR  --- 49 tcp 1040 [0 0 0 0] ------- [0:0 1:0 30 1] [24 0] 0 0
r 103.247762002 _1_ AGT  --- 42 tcp 1040 [13a 1 0 800] ------- [0:0 1:0 30 1] [20 0] 1 0
s 103.247762002 _1_ AGT  --- 50 ack 40 [0 0 0 0] ------- [1:0 0:0 32 0] [20 0] 0 0
r 103.247762002 _1_ RTR  --- 50 ack 40 [0 0 0 0] ------- [1:0 0:0 32 0] [20 0] 0 0
s 103.247762002 _1_ RTR  --- 50 ack 40 [0 0 0 0] ------- [1:0 0:0 30 0] [20 0] 0 0
r 103.257646718 _1_ AGT  --- 45 tcp 1040 [13a 1 0 800] ------- [0:0 1:0 30 1] [21 0] 1 0
s 103.257646718 _1_ AGT  --- 51 ack 40 [0 0 0 0] ------- [1:0 0:0 32 0] [21 0] 0 0
r 103.257646718 _1_ RTR  --- 51 ack 40 [0 0 0 0] ------- [1:0 0:0 32 0] [21 0] 0 0
s 103.257646718 _1_ RTR  --- 51 ack 40 [0 0 0 0] ------- [1:0 0:0 30 0] [21 0] 0 0
r 103.259691257 _0_ AGT  --- 48 ack 40 [13a 0 1 800] ------- [1:0 0:0 30 0] [19 0] 1 0
s 103.259691257 _0_ AGT  --- 52 tcp 1040 [0 0 0 0] ------- [0:0 1:0 32 0] [25 0] 0 0
r 103.259691257 _0_ RTR  --- 52 tcp 1040 [0 0 0 0] ------- [0:0 1:0 32 0] [25 0] 0 0
s 103.259691257 _0_ RTR  --- 52 tcp 1040 [0 0 0 0] ------- [0:0 1:0 30 1] [25 0] 0 0
r 103.269635796 _1_ AGT  --- 46 tcp 1040 [13a 1 0 800] ------- [0:0 1:0 30 1] [22 0] 1 0
s 103.269635796 _1_ AGT  --- 53 ack 40 [0 0 0 0] ------- [1:0 0:0 32 0] [22 0] 0 0
r 103.269635796 _1_ RTR  --- 53 ack 40 [0 0 0 0] ------- [1:0 0:0 32 0] [22 0] 0 0
s 103.269635796 _1_ RTR  --- 53 ack 40 [0 0 0 0] ------- [1:0 0:0 30 0] [22 0] 0 0
r 103.279580517 _1_ AGT  --- 47 tcp 1040 [13a 1 0 800] ------- [0:0 1:0 30 1] [23 0] 1 0
s 103.279580517 _1_ AGT  --- 54 ack 40 [0 0 0 0] ------- [1:0 0:0 32 0] [23 0] 0 0
r 103.279580517 _1_ RTR  --- 54 ack 40 [0 0 0 0] ------- [1:0 0:0 32 0] [23 0] 0 0
s 103.279580517 _1_ RTR  --- 54 ack 40 [0 0 0 0] ------- [1:0 0:0 30 0] [23 0] 0 0
r 103.289465240 _1_ AGT  --- 49 tcp 1040 [13a 1 0 800] ------- [0:0 1:0 30 1] [24 0] 1 0
s 103.289465240 _1_ AGT  --- 55 ack 40 [0 0 0 0] ------- [1:0 0:0 32 0] [24 0] 0 0
r 103.289465240 _1_ RTR  --- 55 ack 40 [0 0 0 0] ------- [1:0 0:0 32 0] [24 0] 0 0
s 103.289465240 _1_ RTR  --- 55 ack 40 [0 0 0 0] ------- [1:0 0:0 30 0] [24 0] 0 0
r 103.291589783 _0_ AGT  --- 50 ack 40 [13a 0 1 800] ------- [1:0 0:0 30 0] [20 0] 1 0
s 103.291589783 _0_ AGT  --- 56 tcp 1040 [0 0 0 0] ------- [0:0 1:0 32 0] [26 0] 0 0
r 103.291589783 _0_ RTR  --- 56 tcp 1040 [0 0 0 0] ------- [0:0 1:0 32 0] [26 0] 0 0
s 103.291589783 _0_ RTR  --- 56 tcp 1040 [0 0 0 0] ------- [0:0 1:0 30 1] [26 0] 0 0
r 103.293534508 _0_ AGT  --- 51 ack 40 [13a 0 1 800] ------- [1:0 0:0 30 0] [21 0] 1 0
s 103.293534508 _0_ AGT  --- 57 tcp 1040 [0 0 0 0] ------- [0:0 1:0 32 0] [27 0] 0 0
r 103.293534508 _0_ RTR  --- 57 tcp 1040 [0 0 0 0] ------- [0:0 1:0 32 0] [27 0] 0 0
s 103.293534508 _0_ RTR  --- 57 tcp 1040 [0 0 0 0] ------- [0:0 1:0 30 1] [27 0] 0 0
r 103.303519053 _1_ AGT  --- 52 tcp 1040 [13a 1 0 800] ------- [0:0 1:0 30 1] [25 0] 1 0
s 103.303519053 _1_ AGT  --- 58 ack 40 [0 0 0 0] ------- [1:0 0:0 32 0] [25 0] 0 0
r 103.303519053 _1_ RTR  --- 58 ack 40 [0 0 0 0] ------- [1:0 0:0 32 0] [25 0] 0 0
s 103.303519053 _1_ RTR  --- 58 ack 40 [0 0 0 0] ------- [1:0 0:0 30 0] [25 0] 0 0
r 103.315389780 _1_ AGT  --- 56 tcp 1040 [13a 1 0 800] ------- [0:0 1:0 30 1] [26 0] 1 0
s 103.315389780 _1_ AGT  --- 59 ack 40 [0 0 0 0] ------- [1:0 0:0 32 0] [26 0] 0 0
r 103.315389780 _1_ RTR  --- 59 ack 40 [0 0 0 0] ------- [1:0 0:0 32 0] [26 0] 0 0
s 103.315389780 _1_ RTR  --- 59 ack 40 [0 0 0 0] ------- [1:0 0:0 30 0] [26 0] 0 0
r 103.325514510 _1_ AGT  --- 57 tcp 1040 [13a 1 0 800] ------- [0:0 1:0 30 1] [27 0] 1 0
s 103.325514510 _1_ AGT  --- 60 ack 40 [0 0 0 0] ------- [1:0 0:0 32 0] [27 0] 0 0
r 103.325514510 _1_ RTR  --- 60 ack 40 [0 0 0 0] ------- [1:0 0:0 32 0] [27 0] 0 0
s 103.325514510 _1_ RTR  --- 60 ack 40 [0 0 0 0] ------- [1:0 0:0 30 0] [27 0] 0 0
r 103.327419059 _0_ AGT  --- 53 ack 40 [13a 0 1 800] ------- [1:0 0:0 30 0] [22 0] 1 0
s 103.327419059 _0_ AGT  --- 61 tcp 1040 [0 0 0 0] ------- [0:0 1:0 32 0] [28 0] 0 0
r 103.327419059 _0_ RTR  --- 61 tcp 1040 [0 0 0 0] ------- [0:0 1:0 32 0] [28 0] 0 0
s 103.327419059 _0_ RTR  --- 61 tcp 1040 [0 0 0 0] ------- [0:0 1:0 30 1] [28 0] 0 0
r 103.337463609 _1_ AGT  --- 61 tcp 1040 [13a 1 0 800] ------- [0:0 1:0 30 1] [28 0] 1 0
s 103.337463609 _1_ AGT  --- 62 ack 40 [0 0 0 0] ------- [1:0 0:0 32 0] [28 0] 0 0
r 103.337463609 _1_ RTR  --- 62 ack 40 [0 0 0 0] ------- [1:0 0:0 32 0] [28 0] 0 0
s 103.337463609 _1_ RTR  --- 62 ack 40 [0 0 0 0] ------- [1:0 0:0 30 0] [28 0] 0 0
r 103.339408159 _0_ AGT  --- 54 ack 40 [13a 0 1 800] ------- [1:0 0:0 30 0] [23 0] 1 0
s 103.339408159 _0_ AGT  --- 63 tcp 1040 [0 0 0 0] ------- [0:0 1:0 32 0] [29 0] 0 0
r 103.339408159 _0_ RTR  --- 63 tcp 1040 [0 0 0 0] ------- [0:0 1:0 32 0] [29 0] 0 0
s 103.339408159 _0_ AGT  --- 64 tcp 1040 [0 0 0 0] ------- [0:0 1:0 32 0] [30 0] 0 0
r 103.339408159 _0_ RTR  --- 64 tcp 1040 [0 0 0 0] ------- [0:0 1:0 32 0] [30 0] 0 0
s 103.339408159 _0_ RTR  --- 63 tcp 1040 [0 0 0 0] ------- [0:0 1:0 30 1] [29 0] 0 0
s 103.339408159 _0_ RTR  --- 64 tcp 1040 [0 0 0 0] ------- [0:0 1:0 30 1] [30 0] 0 0
r 103.341452894 _0_ AGT  --- 55 ack 40 [13a 0 1 800] ------- [1:0 0:0 30 0] [24 0] 1 0
s 103.341452894 _0_ AGT  --- 65 tcp 1040 [0 0 0 0] ------- [0:0 1:0 32 0] [31 0] 0 0
r 103.341452894 _0_ RTR  --- 65 tcp 1040 [0 0 0 0] ------- [0:0 1:0 32 0] [31 0] 0 0
s 103.341452894 _0_ RTR  --- 65 tcp 1040 [0 0 0 0] ------- [0:0 1:0 30 1] [31 0] 0 0
r 103.343457629 _0_ AGT  --- 58 ack 40 [13a 0 1 800] ------- [1:0 0:0 30 0] [25 0] 1 0
s 103.343457629 _0_ AGT  --- 66 tcp 1040 [0 0 0 0] ------- [0:0 1:0 32 0] [32 0] 0 0
r 103.343457629 _0_ RTR  --- 66 tcp 1040 [0 0 0 0] ------- [0:0 1:0 32 0] [32 0] 0 0
s 103.343457629 _0_ RTR  --- 66 tcp 1040 [0 0 0 0] ------- [0:0 1:0 30 1] [32 0] 0 0
r 103.345442365 _0_ AGT  --- 59 ack 40 [13a 0 1 800] ------- [1:0 0:0 30 0] [26 0] 1 0
s 103.345442365 _0_ AGT  --- 67 tcp 1040 [0 0 0 0] ------- [0:0 1:0 32 0] [33 0] 0 0
r 103.345442365 _0_ RTR  --- 67 tcp 1040 [0 0 0 0] ------- [0:0 1:0 32 0] [33 0] 0 0
s 103.345442365 _0_ RTR  --- 67 tcp 1040 [0 0 0 0] ------- [0:0 1:0 30 1] [33 0] 0 0
r 103.355286917 _1_ AGT  --- 63 tcp 1040 [13a 1 0 800] ------- [0:0 1:0 30 1] [29 0] 1 0
s 103.355286917 _1_ AGT  --- 68 ack 40 [0 0 0 0] ------- [1:0 0:0 32 0] [29 0] 0 0
r 103.355286917 _1_ RTR  --- 68 ack 40 [0 0 0 0] ------- [1:0 0:0 32 0] [29 0] 0 0
s 103.355286917 _1_ RTR  --- 68 ack 40 [0 0 0 0] ------- [1:0 0:0 30 0] [29 0] 0 0
r 103.365511654 _1_ AGT  --- 64 tcp 1040 [13a 1 0 800] ------- [0:0 1:0 30 1] [30 0] 1 0
s 103.365511654 _1_ AGT  --- 69 ack 40 [0 0 0 0] ------- [1:0 0:0 32 0] [30 0] 0 0
r 103.365511654 _1_ RTR  --- 69 ack 40 [0 0 0 0] ------- [1:0 0:0 32 0] [30 0] 0 0
s 103.365511654 _1_ RTR  --- 69 ack 40 [0 0 0 0] ------- [1:0 0:0 30 0] [30 0] 0 0
r 103.367356209 _0_ AGT  --- 60 ack 40 [13a 0 1 800] ------- [1:0 0:0 30 0] [27 0] 1 0
s 103.367356209 _0_ AGT  --- 70 tcp 1040 [0 0 0 0] ------- [0:0 1:0 32 0] [34 0] 0 0
r 103.367356209 _0_ RTR  --- 70 tcp 1040 [0 0 0 0] ------- [0:0 1:0 32 0] [34 0] 0 0
s 103.367356209 _0_ RTR  --- 70 tcp 1040 [0 0 0 0] ------- [0:0 1:0 30 1] [34 0] 0 0
r 103.377280765 _1_ AGT  --- 65 tcp 1040 [13a 1 0 800] ------- [0:0 1:0 30 1] [31 0] 1 0
s 103.377280765 _1_ AGT  --- 71 ack 40 [0 0 0 0] ------- [1:0 0:0 32 0] [31 0] 0 0
r 103.377280765 _1_ RTR  --- 71 ack 40 [0 0 0 0] ------- [1:0 0:0 32 0] [31 0] 0 0
s 103.377280765 _1_ RTR  --- 71 ack 40 [0 0 0 0] ------- [1:0 0:0 30 0] [31 0] 0 0
r 103.379165321 _0_ AGT  --- 62 ack 40 [13a 0 1 800] ------- [1:0 0:0 30 0] [28 0] 1 0
s 103.379165321 _0_ AGT  --- 72 tcp 1040 [0 0 0 0] ------- [0:0 1:0 32 0] [35 0] 0 0
r 103.379165321 _0_ RTR  --- 72 tcp 1040 [0 0 0 0] ------- [0:0 1:0 32 0] [35 0] 0 0
s 103.379165321 _0_ RTR  --- 72 tcp 1040 [0 0 0 0] ------- [0:0 1:0 30 1] [35 0] 0 0
r 103.380990064 _0_ AGT  --- 68 ack 40 [13a 0 1 800] ------- [1:0 0:0 30 0] [29 0] 1 0
s 103.380990064 _0_ AGT  --- 73 tcp 1040 [0 0 0 0] ------- [0:0 1:0 32 0] [36 0] 0 0
r 103.380990064 _0_ RTR  --- 73 tcp 1040 [0 0 0 0] ------- [0:0 1:0 32 0] [36 0] 0 0
s 103.380990064 _0_ RTR  --- 73 tcp 1040 [0 0 0 0] ------- [0:0 1:0 30 1] [36 0] 0 0
r 103.382954807 _0_ AGT  --- 69 ack 40 [13a 0 1 800] ------- [1:0 0:0 30 0] [30 0] 1 0
s 103.382954807 _0_ AGT  --- 74 tcp 1040 [0 0 0 0] ------- [0:0 1:0 32 0] [37 0] 0 0
r 103.382954807 _0_ RTR  --- 74 tcp 1040 [0 0 0 0] ------- [0:0 1:0 32 0] [37 0] 0 0
s 103.382954807 _0_ RTR  --- 74 tcp 1040 [0 0 0 0] ------- [0:0 1:0 30 1] [37 0] 0 0
r 103.392799364 _1_ AGT  --- 66 tcp 1040 [13a 1 0 800] ------- [0:0 1:0 30 1] [32 0] 1 0
s 103.392799364 _1_ AGT  --- 75 ack 40 [0 0 0 0] ------- [1:0 0:0 32 0] [32 0] 0 0
r 103.392799364 _1_ RTR  --- 75 ack 40 [0 0 0 0] ------- [1:0 0:0 32 0] [32 0] 0 0
s 103.392799364 _1_ RTR  --- 75 ack 40 [0 0 0 0] ------- [1:0 0:0 30 0] [32 0] 0 0
r 103.402944110 _1_ AGT  --- 67 tcp 1040 [13a 1 0 800] ------- [0:0 1:0 30 1] [33 0] 1 0
s 103.402944110 _1_ AGT  --- 76 ack 40 [0 0 0 0] ------- [1:0 0:0 32 0] [33 0] 0 0
r 103.402944110 _1_ RTR  --- 76 ack 40 [0 0 0 0] ------- [1:0 0:0 32 0] [33 0] 0 0
s 103.402944110 _1_ RTR  --- 76 ack 40 [0 0 0 0] ------- [1:0 0:0 30 0] [33 0] 0 0
r 103.404788670 _0_ AGT  --- 71 ack 40 [13a 0 1 800] ------- [1:0 0:0 30 0] [31 0] 1 0
s 103.404788670 _0_ AGT  --- 77 tcp 1040 [0 0 0 0] ------- [0:0 1:0 32 0] [38 0] 0 0
r 103.404788670 _0_ RTR  --- 77 tcp 1040 [0 0 0 0] ------- [0:0 1:0 32 0] [38 0] 0 0
s 103.404788670 _0_ AGT  --- 78 tcp 1040 [0 0 0 0] ------- [0:0 1:0 32 0] [39 0] 0 0
r 103.404788670 _0_ RTR  --- 78 tcp 1040 [0 0 0 0] ------- [0:0 1:0 32 0] [39 0] 0 0
s 103.404788670 _0_ RTR  --- 77 tcp 1040 [0 0 0 0] ------- [0:0 1:0 30 1] [38 0] 0 0
s 103.404788670 _0_ RTR  --- 78 tcp 1040 [0 0 0 0] ------- [0:0 1:0 30 1] [39 0] 0 0
r 103.415013231 _1_ AGT  --- 70 tcp 1040 [13a 1 0 800] ------- [0:0 1:0 30 1] [34 0] 1 0
s 103.415013231 _1_ AGT  --- 79 ack 40 [0 0 0 0] ------- [1:0 0:0 32 0] [34 0] 0 0
r 103.415013231 _1_ RTR  --- 79 ack 40 [0 0 0 0] ------- [1:0 0:0 32 0] [34 0] 0 0
s 103.415013231 _1_ RTR  --- 79 ack 40 [0 0 0 0] ------- [1:0 0:0 30 0] [34 0] 0 0
r 103.416937794 _0_ AGT  --- 75 ack 40 [13a 0 1 800] ------- [1:0 0:0 30 0] [32 0] 1 0
s 103.416937794 _0_ AGT  --- 80 tcp 1040 [0 0 0 0] ------- [0:0 1:0 32 0] [40 0] 0 0
r 103.416937794 _0_ RTR  --- 80 tcp 1040 [0 0 0 0] ------- [0:0 1:0 32 0] [40 0] 0 0
s 103.416937794 _0_ RTR  --- 80 tcp 1040 [0 0 0 0] ------- [0:0 1:0 30 1] [40 0] 0 0
r 103.418922544 _0_ AGT  --- 76 ack 40 [13a 0 1 800] ------- [1:0 0:0 30 0] [33 0] 1 0
s 103.418922544 _0_ AGT  --- 81 tcp 1040 [0 0 0 0] ------- [0:0 1:0 32 0] [41 0] 0 0
r 103.418922544 _0_ RTR  --- 81 tcp 1040 [0 0 0 0] ------- [0:0 1:0 32 0] [41 0] 0 0
s 103.418922544 _0_ RTR  --- 81 tcp 1040 [0 0 0 0] ------- [0:0 1:0 30 1] [41 0] 0 0
r 103.420767294 _0_ AGT  --- 79 ack 40 [13a 0 1 800] ------- [1:0 0:0 30 0] [34 0] 1 0
s 103.420767294 _0_ AGT  --- 82 tcp 1040 [0 0 0 0] ------- [0:0 1:0 32 0] [42 0] 0 0
r 103.420767294 _0_ RTR  --- 82 tcp 1040 [0 0 0 0] ------- [0:0 1:0 32 0] [42 0] 0 0
s 103.420767294 _0_ RTR  --- 82 tcp 1040 [0 0 0 0] ------- [0:0 1:0 30 1] [42 0] 0 0
r 103.430631858 _1_ AGT  --- 72 tcp 1040 [13a 1 0 800] ------- [0:0 1:0 30 1] [35 0] 1 0
s 103.430631858 _1_ AGT  --- 83 ack 40 [0 0 0 0] ------- [1:0 0:0 32 0] [35 0] 0 0
r 103.430631858 _1_ RTR  --- 83 ack 40 [0 0 0 0] ------- [1:0 0:0 32 0] [35 0] 0 0
s 103.430631858 _1_ RTR  --- 83 ack 40 [0 0 0 0] ------- [1:0 0:0 30 0] [35 0] 0 0
r 103.440556611 _1_ AGT  --- 73 tcp 1040 [13a 1 0 800] ------- [0:0 1:0 30 1] [36 0] 1 0
s 103.440556611 _1_ AGT  --- 84 ack 40 [0 0 0 0] ------- [1:0 0:0 32 0] [36 0] 0 0
r 103.440556611 _1_ RTR  --- 84 ack 40 [0 0 0 0] ------- [1:0 0:0 32 0] [36 0] 0 0
s 103.440556611 _1_ RTR  --- 84 ack 40 [0 0 0 0] ------- [1:0 0:0 30 0] [36 0] 0 0
r 103.450381365 _1_ AGT  --- 74 tcp 1040 [13a 1 0 800] ------- [0:0 1:0 30 1] [37 0] 1 0
s 103.450381365 _1_ AGT  --- 85 ack 40 [0 0 0 0] ------- [1:0 0:0 32 0] [37 0] 0 0
r 103.450381365 _1_ RTR  --- 85 ack 40 [0 0 0 0] ------- [1:0 0:0 32 0] [37 0] 0 0
s 103.450381365 _1_ RTR  --- 85 ack 40 [0 0 0 0] ------- [1:0 0:0 30 0] [37 0] 0 0
r 103.460266122 _1_ AGT  --- 77 tcp 1040 [13a 1 0 800] ------- [0:0 1:0 30 1] [38 0] 1 0
s 103.460266122 _1_ AGT  --- 86 ack 40 [0 0 0 0] ------- [1:0 0:0 32 0] [38 0] 0 0
r 103.460266122 _1_ RTR  --- 86 ack 40 [0 0 0 0] ------- [1:0 0:0 32 0] [38 0] 0 0
s 103.460266122 _1_ RTR  --- 86 ack 40 [0 0 0 0] ------- [1:0 0:0 30 0] [38 0] 0 0
r 103.462150691 _0_ AGT  --- 83 ack 40 [13a 0 1 800] ------- [1:0 0:0 30 0] [35 0] 1 0
s 103.462150691 _0_ AGT  --- 87 tcp 1040 [0 0 0 0] ------- [0:0 1:0 32 0] [43 0] 0 0